# vtk DataFile Version 3.1
# created by Obj2Vtk.java; Author: Matthew Dorsey (madorse2@ncsu.edu)
ASCII
DATASET UNSTRUCTURED_GRID
POINTS 24 FLOAT
	0.504	-0.495	0.276	
	0.504	-0.495	0.0	
	0.504	0.505	0.0	
	0.504	0.505	0.276	
	-0.496	0.505	0.276	
	-0.496	0.505	0.0	
	-0.496	-0.495	0.0	
	-0.496	-0.495	0.276	
	0.441	0.301	0.276	
	0.266	0.167	0.276	
	0.266	0.167	0.31	
	-0.434	0.438	0.31	
	-0.434	0.167	0.31	
	0.266	0.437	0.31	
	0.266	0.437	0.276	
	0.208	0.437	0.276	
	0.208	0.437	0.31	
	0.266	0.436	0.31	
	0.266	0.436	0.276	
	0.441	0.301	0.31	
	0.208	0.438	0.31	
	-0.434	0.167	0.276	
	-0.434	0.438	0.276	
	0.208	0.438	0.276	
CELLS 44 176
3 13 14 15 
3 13 15 16 
3 13 17 18 
3 13 18 14 
3 9 8 19 
3 9 19 10 
3 8 18 17 
3 8 17 19 
3 10 17 16 
3 13 16 17 
3 19 17 10 
3 12 16 11 
3 20 11 16 
3 10 16 12 
3 11 22 21 
3 11 21 12 
3 22 20 23 
3 12 21 10 
3 20 16 15 
3 20 15 23 
3 20 22 11 
3 9 10 21 
3 0 1 2 
3 0 2 3 
3 4 5 6 
3 4 6 7 
3 9 0 8 
3 3 8 0 
3 3 14 18 
3 8 3 18 
3 1 6 5 
3 1 5 2 
3 7 21 4 
3 4 21 22 
3 6 1 0 
3 0 7 6 
3 2 5 4 
3 4 3 2 
3 0 9 7 
3 21 7 9 
3 3 4 23 
3 22 23 4 
3 23 14 3 
3 15 14 23 
CELL_TYPES 44
5
5
5
5
5
5
5
5
5
5
5
5
5
5
5
5
5
5
5
5
5
5
5
5
5
5
5
5
5
5
5
5
5
5
5
5
5
5
5
5
5
5
5
5
CELL_DATA 44
COLOR_SCALARS faceColor 3
0.27450982 0.7176471 0.28627452
0.27450982 0.7176471 0.28627452
0.27450982 0.7176471 0.28627452
0.27450982 0.7176471 0.28627452
0.27450982 0.7176471 0.28627452
0.27450982 0.7176471 0.28627452
0.27450982 0.7176471 0.28627452
0.27450982 0.7176471 0.28627452
0.27450982 0.7176471 0.28627452
0.27450982 0.7176471 0.28627452
0.27450982 0.7176471 0.28627452
0.27450982 0.7176471 0.28627452
0.27450982 0.7176471 0.28627452
0.27450982 0.7176471 0.28627452
0.27450982 0.7176471 0.28627452
0.27450982 0.7176471 0.28627452
0.27450982 0.7176471 0.28627452
0.27450982 0.7176471 0.28627452
0.27450982 0.7176471 0.28627452
0.27450982 0.7176471 0.28627452
0.27450982 0.7176471 0.28627452
0.27450982 0.7176471 0.28627452
0.654902 0.6784314 0.69411767
0.654902 0.6784314 0.69411767
0.654902 0.6784314 0.69411767
0.654902 0.6784314 0.69411767
0.654902 0.6784314 0.69411767
0.654902 0.6784314 0.69411767
0.654902 0.6784314 0.69411767
0.654902 0.6784314 0.69411767
0.654902 0.6784314 0.69411767
0.654902 0.6784314 0.69411767
0.654902 0.6784314 0.69411767
0.654902 0.6784314 0.69411767
0.654902 0.6784314 0.69411767
0.654902 0.6784314 0.69411767
0.654902 0.6784314 0.69411767
0.654902 0.6784314 0.69411767
0.654902 0.6784314 0.69411767
0.654902 0.6784314 0.69411767
0.654902 0.6784314 0.69411767
0.654902 0.6784314 0.69411767
0.654902 0.6784314 0.69411767
0.654902 0.6784314 0.69411767
