# vtk DataFile Version 3.1
# created by Obj2Vtk.java; Author: Matthew Dorsey (madorse2@ncsu.edu)
ASCII
DATASET UNSTRUCTURED_GRID
POINTS 217 FLOAT
	0.504	0.255	-0.004	
	0.529	0.254	-0.004	
	0.553	0.25	-0.004	
	0.577	0.244	-0.004	
	0.6	0.236	-0.004	
	0.622	0.226	-0.004	
	0.643	0.213	-0.004	
	0.663	0.198	-0.004	
	0.681	0.182	-0.004	
	0.698	0.164	-0.004	
	0.712	0.144	-0.004	
	-0.654	0.198	-0.004	
	-0.672	0.182	-0.004	
	-0.689	0.164	-0.004	
	-0.258	-0.13	0.276	
	-0.316	-0.13	0.276	
	-0.316	-0.13	0.31	
	-0.258	-0.13	0.31	
	-0.704	0.144	-0.004	
	-0.316	0.141	0.276	
	-0.258	0.141	0.276	
	-0.258	0.141	0.31	
	-0.316	0.141	0.31	
	-0.375	0.141	0.31	
	-0.375	-0.13	0.31	
	-0.716	0.123	-0.004	
	-0.375	-0.13	0.0	
	-0.316	-0.13	0.0	
	-0.316	0.141	0.0	
	-0.375	0.141	0.0	
	-0.727	0.101	-0.004	
	-0.735	0.078	-0.004	
	-0.375	-0.13	0.276	
	-0.741	0.054	-0.004	
	-0.375	0.141	0.276	
	-0.745	0.03	-0.004	
	-0.746	0.005	-0.004	
	-0.496	-0.245	0.276	
	-0.496	-0.245	0.0	
	-0.745	-0.019	-0.004	
	-0.745	-0.019	0.276	
	-0.635	0.213	-0.004	
	-0.614	0.226	-0.004	
	-0.591	0.236	-0.004	
	-0.568	0.244	-0.004	
	-0.544	0.25	-0.004	
	-0.52	0.254	-0.004	
	-0.496	0.255	-0.004	
	-0.741	-0.044	-0.004	
	-0.741	-0.044	0.276	
	-0.735	-0.068	-0.004	
	-0.735	-0.068	0.276	
	-0.727	-0.091	-0.004	
	-0.727	-0.091	0.276	
	-0.716	-0.113	-0.004	
	-0.716	-0.113	0.276	
	-0.704	-0.134	-0.004	
	-0.704	-0.134	0.276	
	-0.496	-0.245	-0.004	
	-0.52	-0.244	-0.004	
	-0.544	-0.24	-0.004	
	-0.568	-0.234	-0.004	
	-0.591	-0.226	-0.004	
	-0.614	-0.215	-0.004	
	-0.635	-0.203	-0.004	
	-0.654	-0.188	-0.004	
	-0.672	-0.172	-0.004	
	-0.689	-0.154	-0.004	
	-0.689	-0.154	0.276	
	-0.672	-0.172	0.276	
	-0.496	0.255	0.276	
	-0.433	-0.13	0.276	
	-0.433	0.141	0.276	
	-0.654	-0.188	0.276	
	-0.496	0.255	0.0	
	-0.433	0.141	0.0	
	-0.433	-0.13	0.0	
	-0.635	-0.203	0.276	
	-0.614	-0.215	0.276	
	-0.591	-0.226	0.276	
	-0.568	-0.234	0.276	
	-0.544	-0.24	0.276	
	-0.52	-0.244	0.276	
	-0.433	0.141	0.31	
	-0.433	-0.13	0.31	
	-0.52	0.254	0.276	
	-0.544	0.25	0.276	
	-0.568	0.244	0.276	
	-0.591	0.236	0.276	
	-0.614	0.226	0.276	
	-0.635	0.213	0.276	
	-0.654	0.198	0.276	
	-0.672	0.182	0.276	
	-0.689	0.164	0.276	
	-0.704	0.144	0.276	
	-0.716	0.123	0.276	
	-0.727	0.101	0.276	
	-0.735	0.078	0.276	
	-0.741	0.054	0.276	
	-0.745	0.03	0.276	
	-0.746	0.005	0.276	
	0.725	0.123	-0.004	
	0.735	0.101	-0.004	
	0.744	0.078	-0.004	
	0.749	0.054	-0.004	
	0.753	0.03	-0.004	
	0.754	0.005	-0.004	
	0.753	-0.019	-0.004	
	0.749	-0.044	-0.004	
	0.744	-0.068	-0.004	
	0.735	-0.091	-0.004	
	0.725	-0.113	-0.004	
	0.712	-0.134	-0.004	
	0.698	-0.154	-0.004	
	0.681	-0.172	-0.004	
	0.663	-0.188	-0.004	
	0.643	-0.203	-0.004	
	0.622	-0.215	-0.004	
	0.6	-0.226	-0.004	
	0.577	-0.234	-0.004	
	0.553	-0.24	-0.004	
	0.529	-0.244	-0.004	
	0.504	-0.245	-0.004	
	0.034	0.141	0.31	
	0.034	0.141	0.276	
	0.504	0.255	0.0	
	-0.083	0.141	0.31	
	-0.083	-0.13	0.31	
	-0.083	-0.13	0.0	
	-0.083	0.141	0.0	
	-0.083	-0.13	0.276	
	-0.083	0.141	0.276	
	-0.141	0.141	0.31	
	-0.2	0.141	0.31	
	-0.2	-0.13	0.31	
	-0.141	-0.13	0.31	
	-0.2	-0.13	0.0	
	-0.141	-0.13	0.0	
	-0.141	0.141	0.0	
	-0.2	0.141	0.0	
	-0.141	-0.13	0.276	
	-0.2	-0.13	0.276	
	-0.2	0.141	0.276	
	-0.141	0.141	0.276	
	-0.258	-0.13	0.0	
	-0.258	0.141	0.0	
	0.267	-0.13	0.276	
	0.209	-0.13	0.276	
	0.209	-0.13	0.31	
	0.267	-0.13	0.31	
	0.209	0.141	0.276	
	0.209	0.14	0.276	
	0.267	0.14	0.276	
	0.267	0.14	0.31	
	0.209	0.14	0.31	
	0.209	0.141	0.31	
	0.15	0.141	0.31	
	0.15	-0.13	0.31	
	0.15	-0.13	0.0	
	0.209	-0.13	0.0	
	0.209	0.141	0.0	
	0.15	0.141	0.0	
	0.209	0.14	0.0	
	0.504	-0.245	0.0	
	0.15	-0.13	0.276	
	0.15	0.141	0.276	
	0.092	0.141	0.31	
	0.092	-0.13	0.31	
	0.092	-0.13	0.0	
	0.092	0.141	0.0	
	0.267	-0.13	0.0	
	0.442	0.004	0.0	
	0.092	-0.13	0.276	
	0.267	0.139	0.0	
	0.267	0.14	0.0	
	0.092	0.141	0.276	
	0.442	0.004	0.31	
	0.267	0.139	0.31	
	0.034	-0.13	0.31	
	0.034	-0.13	0.0	
	0.034	0.141	0.0	
	0.034	-0.13	0.276	
	0.663	-0.188	0.276	
	0.681	-0.172	0.276	
	0.643	-0.203	0.276	
	0.622	-0.215	0.276	
	0.6	-0.226	0.276	
	0.577	-0.234	0.276	
	0.553	-0.24	0.276	
	0.529	-0.244	0.276	
	0.504	-0.245	0.276	
	0.442	0.004	0.276	
	0.663	0.198	0.276	
	0.643	0.213	0.276	
	0.622	0.226	0.276	
	0.6	0.236	0.276	
	0.577	0.244	0.276	
	0.553	0.25	0.276	
	0.529	0.254	0.276	
	0.504	0.255	0.276	
	0.712	0.144	0.276	
	0.698	0.164	0.276	
	0.681	0.182	0.276	
	0.754	0.005	0.276	
	0.753	0.03	0.276	
	0.749	0.054	0.276	
	0.744	0.078	0.276	
	0.735	0.101	0.276	
	0.725	0.123	0.276	
	0.698	-0.154	0.276	
	0.712	-0.134	0.276	
	0.725	-0.113	0.276	
	0.735	-0.091	0.276	
	0.744	-0.068	0.276	
	0.749	-0.044	0.276	
	0.753	-0.019	0.276	
	0.267	0.139	0.276	
CELLS 430 1720
3 173 171 170 
3 176 177 149 
3 146 191 176 
3 146 176 149 
3 191 216 177 
3 191 177 176 
3 150 155 154 
3 150 154 151 
3 157 154 156 
3 148 154 157 
3 155 156 154 
3 161 162 158 
3 160 162 161 
3 159 158 162 
3 157 164 147 
3 157 147 148 
3 155 150 165 
3 155 165 156 
3 148 147 146 
3 148 146 149 
3 153 152 151 
3 153 151 154 
3 152 153 177 
3 152 177 216 
3 148 177 154 
3 149 177 148 
3 153 154 177 
3 162 173 159 
3 174 173 162 
3 170 159 173 
3 156 166 167 
3 156 167 157 
3 158 168 169 
3 158 169 161 
3 167 172 164 
3 167 164 157 
3 156 165 175 
3 156 175 166 
3 2 122 1 
3 3 122 2 
3 4 122 3 
3 5 122 4 
3 6 122 5 
3 7 122 6 
3 8 122 7 
3 9 122 8 
3 10 122 9 
3 20 70 19 
3 27 38 26 
3 28 29 74 
3 15 32 37 
3 19 70 34 
3 25 18 13 
3 25 13 12 
3 25 12 11 
3 25 11 41 
3 25 41 42 
3 25 42 43 
3 25 43 44 
3 25 44 45 
3 47 25 46 
3 45 46 25 
3 39 48 49 
3 39 49 40 
3 48 50 51 
3 48 51 49 
3 33 47 35 
3 36 35 47 
3 31 47 33 
3 30 47 31 
3 25 47 30 
3 39 36 47 
3 50 52 53 
3 50 53 51 
3 52 54 55 
3 52 55 53 
3 54 56 57 
3 54 57 55 
3 56 67 68 
3 56 68 57 
3 60 47 59 
3 61 47 60 
3 62 47 61 
3 63 47 62 
3 64 47 63 
3 65 47 64 
3 66 47 65 
3 67 47 66 
3 56 47 67 
3 54 47 56 
3 52 47 54 
3 50 47 52 
3 48 47 50 
3 39 47 48 
3 58 59 47 
3 67 66 69 
3 67 69 68 
3 72 88 71 
3 70 85 72 
3 66 65 73 
3 66 73 69 
3 65 64 77 
3 65 77 73 
3 38 74 76 
3 75 76 74 
3 64 63 78 
3 64 78 77 
3 63 62 79 
3 63 79 78 
3 47 74 38 
3 62 61 80 
3 62 80 79 
3 61 60 81 
3 61 81 80 
3 60 59 82 
3 60 82 81 
3 47 38 58 
3 59 58 38 
3 37 82 38 
3 59 38 82 
3 86 72 85 
3 87 72 86 
3 88 72 87 
3 89 71 88 
3 90 71 89 
3 91 71 90 
3 92 71 91 
3 93 71 92 
3 94 71 93 
3 38 76 26 
3 29 75 74 
3 95 71 94 
3 96 71 95 
3 97 71 96 
3 98 71 97 
3 99 71 98 
3 100 40 71 
3 40 49 71 
3 99 100 71 
3 101 122 10 
3 102 122 101 
3 103 122 102 
3 104 122 103 
3 105 122 104 
3 106 122 105 
3 0 1 122 
3 49 51 71 
3 51 53 71 
3 53 55 71 
3 55 57 71 
3 57 68 71 
3 68 69 71 
3 69 73 71 
3 73 77 71 
3 77 78 71 
3 78 79 71 
3 80 71 79 
3 81 71 80 
3 82 71 81 
3 37 71 82 
3 122 106 107 
3 122 107 108 
3 122 108 109 
3 122 109 110 
3 122 110 111 
3 122 111 112 
3 122 112 113 
3 122 113 114 
3 122 114 115 
3 122 115 116 
3 122 116 117 
3 122 117 118 
3 122 118 119 
3 122 119 120 
3 122 120 121 
3 1 0 125 
3 124 70 131 
3 38 136 137 
3 138 139 74 
3 71 37 32 
3 140 141 37 
3 70 72 34 
3 70 142 143 
3 38 137 128 
3 129 138 74 
3 130 140 37 
3 70 143 131 
3 38 144 136 
3 139 145 74 
3 14 15 37 
3 141 14 37 
3 70 20 142 
3 144 38 27 
3 145 28 74 
3 110 211 111 
3 211 112 111 
3 114 182 115 
3 182 116 115 
3 147 190 146 
3 151 152 150 
3 199 150 152 
3 118 187 119 
3 159 163 158 
3 187 120 119 
3 161 169 125 
3 121 163 122 
3 147 164 190 
3 165 150 199 
3 74 70 125 
3 122 125 0 
3 122 163 125 
3 169 180 125 
3 125 163 171 
3 170 171 163 
3 37 190 181 
3 172 181 190 
3 173 174 125 
3 171 173 125 
3 70 124 199 
3 38 179 163 
3 168 158 163 
3 74 125 180 
3 174 160 125 
3 37 38 190 
3 164 172 190 
3 175 199 124 
3 165 199 175 
3 199 125 70 
3 86 44 87 
3 87 44 88 
3 43 88 44 
3 128 179 38 
3 168 163 179 
3 43 89 88 
3 180 129 74 
3 163 190 38 
3 181 130 37 
3 92 91 12 
3 12 93 92 
3 114 183 182 
3 184 116 182 
3 116 184 117 
3 185 117 184 
3 186 118 117 
3 186 117 185 
3 99 98 35 
3 118 186 187 
3 35 100 99 
3 188 120 187 
3 46 85 74 
3 70 74 85 
3 120 188 121 
3 189 121 188 
3 46 45 85 
3 121 189 163 
3 190 163 189 
3 86 45 44 
3 146 190 191 
3 190 189 191 
3 90 11 91 
3 195 191 194 
3 196 191 195 
3 193 194 191 
3 197 191 196 
3 198 191 197 
3 199 191 198 
3 11 12 91 
3 93 12 13 
3 13 18 94 
3 13 94 93 
3 95 94 25 
3 94 18 25 
3 96 95 30 
3 25 30 95 
3 30 31 97 
3 30 97 96 
3 98 97 33 
3 31 33 97 
3 33 35 98 
3 100 35 36 
3 40 100 39 
3 36 39 100 
3 47 46 74 
3 197 2 198 
3 86 85 45 
3 196 2 197 
3 43 42 89 
3 90 89 41 
3 42 41 89 
3 41 11 90 
3 199 198 125 
3 1 125 198 
3 202 192 191 
3 192 193 191 
3 201 202 191 
3 198 2 1 
3 196 3 2 
3 205 206 191 
3 207 208 191 
3 206 207 191 
3 208 200 191 
3 200 201 191 
3 204 205 191 
3 203 204 191 
3 196 195 3 
3 4 3 195 
3 4 195 5 
3 194 5 195 
3 188 191 189 
3 187 191 188 
3 186 191 187 
3 185 191 186 
3 184 191 185 
3 182 191 184 
3 183 191 182 
3 209 191 183 
3 210 191 209 
3 211 191 210 
3 212 191 211 
3 213 191 212 
3 214 191 213 
3 203 191 215 
3 215 191 214 
3 194 193 5 
3 6 5 193 
3 6 193 7 
3 192 7 193 
3 192 8 7 
3 202 8 192 
3 216 199 152 
3 191 199 216 
3 202 201 8 
3 163 159 170 
3 174 162 160 
3 160 161 125 
3 208 207 101 
3 102 101 207 
3 102 207 103 
3 206 103 207 
3 205 103 206 
3 105 104 204 
3 105 204 203 
3 8 201 9 
3 9 201 10 
3 200 10 201 
3 208 101 200 
3 10 200 101 
3 205 104 103 
3 205 204 104 
3 203 106 105 
3 107 106 203 
3 215 107 203 
3 214 108 107 
3 214 107 215 
3 108 214 109 
3 213 109 214 
3 212 110 109 
3 212 109 213 
3 110 212 211 
3 210 112 211 
3 112 210 113 
3 209 113 210 
3 183 114 113 
3 183 113 209 
3 166 123 178 
3 166 178 167 
3 168 179 180 
3 168 180 169 
3 178 181 172 
3 178 172 167 
3 166 175 124 
3 166 124 123 
3 123 124 126 
3 126 124 131 
3 123 126 127 
3 123 127 178 
3 129 180 128 
3 179 128 180 
3 181 178 130 
3 127 130 178 
3 126 132 135 
3 126 135 127 
3 128 137 138 
3 128 138 129 
3 135 140 130 
3 135 130 127 
3 126 131 143 
3 126 143 132 
3 83 72 71 
3 83 71 84 
3 23 83 84 
3 23 84 24 
3 26 76 75 
3 26 75 29 
3 84 71 32 
3 84 32 24 
3 23 34 72 
3 23 72 83 
3 132 133 134 
3 132 134 135 
3 137 136 139 
3 137 139 138 
3 134 141 140 
3 134 140 135 
3 132 143 142 
3 132 142 133 
3 22 23 24 
3 22 24 16 
3 27 26 29 
3 27 29 28 
3 24 32 15 
3 24 15 16 
3 22 19 34 
3 22 34 23 
3 16 15 14 
3 16 14 17 
3 21 20 19 
3 21 19 22 
3 21 22 16 
3 21 16 17 
3 144 27 28 
3 144 28 145 
3 133 21 17 
3 133 17 134 
3 136 144 145 
3 136 145 139 
3 17 14 141 
3 17 141 134 
3 133 142 20 
3 133 20 21 
CELL_TYPES 430
5
5
5
5
5
5
5
5
5
5
5
5
5
5
5
5
5
5
5
5
5
5
5
5
5
5
5
5
5
5
5
5
5
5
5
5
5
5
5
5
5
5
5
5
5
5
5
5
5
5
5
5
5
5
5
5
5
5
5
5
5
5
5
5
5
5
5
5
5
5
5
5
5
5
5
5
5
5
5
5
5
5
5
5
5
5
5
5
5
5
5
5
5
5
5
5
5
5
5
5
5
5
5
5
5
5
5
5
5
5
5
5
5
5
5
5
5
5
5
5
5
5
5
5
5
5
5
5
5
5
5
5
5
5
5
5
5
5
5
5
5
5
5
5
5
5
5
5
5
5
5
5
5
5
5
5
5
5
5
5
5
5
5
5
5
5
5
5
5
5
5
5
5
5
5
5
5
5
5
5
5
5
5
5
5
5
5
5
5
5
5
5
5
5
5
5
5
5
5
5
5
5
5
5
5
5
5
5
5
5
5
5
5
5
5
5
5
5
5
5
5
5
5
5
5
5
5
5
5
5
5
5
5
5
5
5
5
5
5
5
5
5
5
5
5
5
5
5
5
5
5
5
5
5
5
5
5
5
5
5
5
5
5
5
5
5
5
5
5
5
5
5
5
5
5
5
5
5
5
5
5
5
5
5
5
5
5
5
5
5
5
5
5
5
5
5
5
5
5
5
5
5
5
5
5
5
5
5
5
5
5
5
5
5
5
5
5
5
5
5
5
5
5
5
5
5
5
5
5
5
5
5
5
5
5
5
5
5
5
5
5
5
5
5
5
5
5
5
5
5
5
5
5
5
5
5
5
5
5
5
5
5
5
5
5
5
5
5
5
5
5
5
5
5
5
5
5
5
5
5
5
5
5
5
5
5
5
5
5
5
5
5
5
5
5
5
5
5
5
5
5
5
5
5
5
5
5
5
5
5
5
5
5
5
5
5
5
5
5
5
5
5
5
5
5
5
5
5
5
5
CELL_DATA 430
COLOR_SCALARS faceColor 3
0.38039216 0.39215687 0.77254903
0.38039216 0.39215687 0.77254903
0.38039216 0.39215687 0.77254903
0.38039216 0.39215687 0.77254903
0.38039216 0.39215687 0.77254903
0.38039216 0.39215687 0.77254903
0.4627451 0.32941177 0.76862746
0.4627451 0.32941177 0.76862746
0.4627451 0.32941177 0.76862746
0.4627451 0.32941177 0.76862746
0.4627451 0.32941177 0.76862746
0.4627451 0.32941177 0.76862746
0.4627451 0.32941177 0.76862746
0.4627451 0.32941177 0.76862746
0.4627451 0.32941177 0.76862746
0.4627451 0.32941177 0.76862746
0.4627451 0.32941177 0.76862746
0.4627451 0.32941177 0.76862746
0.47843137 0.35686275 0.7529412
0.47843137 0.35686275 0.7529412
0.47843137 0.35686275 0.7529412
0.47843137 0.35686275 0.7529412
0.47843137 0.35686275 0.7529412
0.47843137 0.35686275 0.7529412
0.47843137 0.35686275 0.7529412
0.47843137 0.35686275 0.7529412
0.47843137 0.35686275 0.7529412
0.47843137 0.35686275 0.7529412
0.47843137 0.35686275 0.7529412
0.47843137 0.35686275 0.7529412
0.6431373 0.26666668 0.6784314
0.6431373 0.26666668 0.6784314
0.6431373 0.26666668 0.6784314
0.6431373 0.26666668 0.6784314
0.6431373 0.26666668 0.6784314
0.6431373 0.26666668 0.6784314
0.6431373 0.26666668 0.6784314
0.6431373 0.26666668 0.6784314
0.654902 0.6784314 0.69411767
0.654902 0.6784314 0.69411767
0.654902 0.6784314 0.69411767
0.654902 0.6784314 0.69411767
0.654902 0.6784314 0.69411767
0.654902 0.6784314 0.69411767
0.654902 0.6784314 0.69411767
0.654902 0.6784314 0.69411767
0.654902 0.6784314 0.69411767
0.654902 0.6784314 0.69411767
0.654902 0.6784314 0.69411767
0.654902 0.6784314 0.69411767
0.654902 0.6784314 0.69411767
0.654902 0.6784314 0.69411767
0.654902 0.6784314 0.69411767
0.654902 0.6784314 0.69411767
0.654902 0.6784314 0.69411767
0.654902 0.6784314 0.69411767
0.654902 0.6784314 0.69411767
0.654902 0.6784314 0.69411767
0.654902 0.6784314 0.69411767
0.654902 0.6784314 0.69411767
0.654902 0.6784314 0.69411767
0.654902 0.6784314 0.69411767
0.654902 0.6784314 0.69411767
0.654902 0.6784314 0.69411767
0.654902 0.6784314 0.69411767
0.654902 0.6784314 0.69411767
0.654902 0.6784314 0.69411767
0.654902 0.6784314 0.69411767
0.654902 0.6784314 0.69411767
0.654902 0.6784314 0.69411767
0.654902 0.6784314 0.69411767
0.654902 0.6784314 0.69411767
0.654902 0.6784314 0.69411767
0.654902 0.6784314 0.69411767
0.654902 0.6784314 0.69411767
0.654902 0.6784314 0.69411767
0.654902 0.6784314 0.69411767
0.654902 0.6784314 0.69411767
0.654902 0.6784314 0.69411767
0.654902 0.6784314 0.69411767
0.654902 0.6784314 0.69411767
0.654902 0.6784314 0.69411767
0.654902 0.6784314 0.69411767
0.654902 0.6784314 0.69411767
0.654902 0.6784314 0.69411767
0.654902 0.6784314 0.69411767
0.654902 0.6784314 0.69411767
0.654902 0.6784314 0.69411767
0.654902 0.6784314 0.69411767
0.654902 0.6784314 0.69411767
0.654902 0.6784314 0.69411767
0.654902 0.6784314 0.69411767
0.654902 0.6784314 0.69411767
0.654902 0.6784314 0.69411767
0.654902 0.6784314 0.69411767
0.654902 0.6784314 0.69411767
0.654902 0.6784314 0.69411767
0.654902 0.6784314 0.69411767
0.654902 0.6784314 0.69411767
0.654902 0.6784314 0.69411767
0.654902 0.6784314 0.69411767
0.654902 0.6784314 0.69411767
0.654902 0.6784314 0.69411767
0.654902 0.6784314 0.69411767
0.654902 0.6784314 0.69411767
0.654902 0.6784314 0.69411767
0.654902 0.6784314 0.69411767
0.654902 0.6784314 0.69411767
0.654902 0.6784314 0.69411767
0.654902 0.6784314 0.69411767
0.654902 0.6784314 0.69411767
0.654902 0.6784314 0.69411767
0.654902 0.6784314 0.69411767
0.654902 0.6784314 0.69411767
0.654902 0.6784314 0.69411767
0.654902 0.6784314 0.69411767
0.654902 0.6784314 0.69411767
0.654902 0.6784314 0.69411767
0.654902 0.6784314 0.69411767
0.654902 0.6784314 0.69411767
0.654902 0.6784314 0.69411767
0.654902 0.6784314 0.69411767
0.654902 0.6784314 0.69411767
0.654902 0.6784314 0.69411767
0.654902 0.6784314 0.69411767
0.654902 0.6784314 0.69411767
0.654902 0.6784314 0.69411767
0.654902 0.6784314 0.69411767
0.654902 0.6784314 0.69411767
0.654902 0.6784314 0.69411767
0.654902 0.6784314 0.69411767
0.654902 0.6784314 0.69411767
0.654902 0.6784314 0.69411767
0.654902 0.6784314 0.69411767
0.654902 0.6784314 0.69411767
0.654902 0.6784314 0.69411767
0.654902 0.6784314 0.69411767
0.654902 0.6784314 0.69411767
0.654902 0.6784314 0.69411767
0.654902 0.6784314 0.69411767
0.654902 0.6784314 0.69411767
0.654902 0.6784314 0.69411767
0.654902 0.6784314 0.69411767
0.654902 0.6784314 0.69411767
0.654902 0.6784314 0.69411767
0.654902 0.6784314 0.69411767
0.654902 0.6784314 0.69411767
0.654902 0.6784314 0.69411767
0.654902 0.6784314 0.69411767
0.654902 0.6784314 0.69411767
0.654902 0.6784314 0.69411767
0.654902 0.6784314 0.69411767
0.654902 0.6784314 0.69411767
0.654902 0.6784314 0.69411767
0.654902 0.6784314 0.69411767
0.654902 0.6784314 0.69411767
0.654902 0.6784314 0.69411767
0.654902 0.6784314 0.69411767
0.654902 0.6784314 0.69411767
0.654902 0.6784314 0.69411767
0.654902 0.6784314 0.69411767
0.654902 0.6784314 0.69411767
0.654902 0.6784314 0.69411767
0.654902 0.6784314 0.69411767
0.654902 0.6784314 0.69411767
0.654902 0.6784314 0.69411767
0.654902 0.6784314 0.69411767
0.654902 0.6784314 0.69411767
0.654902 0.6784314 0.69411767
0.654902 0.6784314 0.69411767
0.654902 0.6784314 0.69411767
0.654902 0.6784314 0.69411767
0.654902 0.6784314 0.69411767
0.654902 0.6784314 0.69411767
0.654902 0.6784314 0.69411767
0.654902 0.6784314 0.69411767
0.654902 0.6784314 0.69411767
0.654902 0.6784314 0.69411767
0.654902 0.6784314 0.69411767
0.654902 0.6784314 0.69411767
0.654902 0.6784314 0.69411767
0.654902 0.6784314 0.69411767
0.654902 0.6784314 0.69411767
0.654902 0.6784314 0.69411767
0.654902 0.6784314 0.69411767
0.654902 0.6784314 0.69411767
0.654902 0.6784314 0.69411767
0.654902 0.6784314 0.69411767
0.654902 0.6784314 0.69411767
0.654902 0.6784314 0.69411767
0.654902 0.6784314 0.69411767
0.654902 0.6784314 0.69411767
0.654902 0.6784314 0.69411767
0.654902 0.6784314 0.69411767
0.654902 0.6784314 0.69411767
0.654902 0.6784314 0.69411767
0.654902 0.6784314 0.69411767
0.654902 0.6784314 0.69411767
0.654902 0.6784314 0.69411767
0.654902 0.6784314 0.69411767
0.654902 0.6784314 0.69411767
0.654902 0.6784314 0.69411767
0.654902 0.6784314 0.69411767
0.654902 0.6784314 0.69411767
0.654902 0.6784314 0.69411767
0.654902 0.6784314 0.69411767
0.654902 0.6784314 0.69411767
0.654902 0.6784314 0.69411767
0.654902 0.6784314 0.69411767
0.654902 0.6784314 0.69411767
0.654902 0.6784314 0.69411767
0.654902 0.6784314 0.69411767
0.654902 0.6784314 0.69411767
0.654902 0.6784314 0.69411767
0.654902 0.6784314 0.69411767
0.654902 0.6784314 0.69411767
0.654902 0.6784314 0.69411767
0.654902 0.6784314 0.69411767
0.654902 0.6784314 0.69411767
0.654902 0.6784314 0.69411767
0.654902 0.6784314 0.69411767
0.654902 0.6784314 0.69411767
0.654902 0.6784314 0.69411767
0.654902 0.6784314 0.69411767
0.654902 0.6784314 0.69411767
0.654902 0.6784314 0.69411767
0.654902 0.6784314 0.69411767
0.654902 0.6784314 0.69411767
0.654902 0.6784314 0.69411767
0.654902 0.6784314 0.69411767
0.654902 0.6784314 0.69411767
0.654902 0.6784314 0.69411767
0.654902 0.6784314 0.69411767
0.654902 0.6784314 0.69411767
0.654902 0.6784314 0.69411767
0.654902 0.6784314 0.69411767
0.654902 0.6784314 0.69411767
0.654902 0.6784314 0.69411767
0.654902 0.6784314 0.69411767
0.654902 0.6784314 0.69411767
0.654902 0.6784314 0.69411767
0.654902 0.6784314 0.69411767
0.654902 0.6784314 0.69411767
0.654902 0.6784314 0.69411767
0.654902 0.6784314 0.69411767
0.654902 0.6784314 0.69411767
0.654902 0.6784314 0.69411767
0.654902 0.6784314 0.69411767
0.654902 0.6784314 0.69411767
0.654902 0.6784314 0.69411767
0.654902 0.6784314 0.69411767
0.654902 0.6784314 0.69411767
0.654902 0.6784314 0.69411767
0.654902 0.6784314 0.69411767
0.654902 0.6784314 0.69411767
0.654902 0.6784314 0.69411767
0.654902 0.6784314 0.69411767
0.654902 0.6784314 0.69411767
0.654902 0.6784314 0.69411767
0.654902 0.6784314 0.69411767
0.654902 0.6784314 0.69411767
0.654902 0.6784314 0.69411767
0.654902 0.6784314 0.69411767
0.654902 0.6784314 0.69411767
0.654902 0.6784314 0.69411767
0.654902 0.6784314 0.69411767
0.654902 0.6784314 0.69411767
0.654902 0.6784314 0.69411767
0.654902 0.6784314 0.69411767
0.654902 0.6784314 0.69411767
0.654902 0.6784314 0.69411767
0.654902 0.6784314 0.69411767
0.654902 0.6784314 0.69411767
0.654902 0.6784314 0.69411767
0.654902 0.6784314 0.69411767
0.654902 0.6784314 0.69411767
0.654902 0.6784314 0.69411767
0.654902 0.6784314 0.69411767
0.654902 0.6784314 0.69411767
0.654902 0.6784314 0.69411767
0.654902 0.6784314 0.69411767
0.654902 0.6784314 0.69411767
0.654902 0.6784314 0.69411767
0.654902 0.6784314 0.69411767
0.654902 0.6784314 0.69411767
0.654902 0.6784314 0.69411767
0.654902 0.6784314 0.69411767
0.654902 0.6784314 0.69411767
0.654902 0.6784314 0.69411767
0.654902 0.6784314 0.69411767
0.654902 0.6784314 0.69411767
0.654902 0.6784314 0.69411767
0.654902 0.6784314 0.69411767
0.654902 0.6784314 0.69411767
0.654902 0.6784314 0.69411767
0.654902 0.6784314 0.69411767
0.654902 0.6784314 0.69411767
0.654902 0.6784314 0.69411767
0.654902 0.6784314 0.69411767
0.654902 0.6784314 0.69411767
0.654902 0.6784314 0.69411767
0.654902 0.6784314 0.69411767
0.654902 0.6784314 0.69411767
0.654902 0.6784314 0.69411767
0.654902 0.6784314 0.69411767
0.654902 0.6784314 0.69411767
0.654902 0.6784314 0.69411767
0.654902 0.6784314 0.69411767
0.654902 0.6784314 0.69411767
0.654902 0.6784314 0.69411767
0.654902 0.6784314 0.69411767
0.654902 0.6784314 0.69411767
0.654902 0.6784314 0.69411767
0.654902 0.6784314 0.69411767
0.654902 0.6784314 0.69411767
0.654902 0.6784314 0.69411767
0.654902 0.6784314 0.69411767
0.654902 0.6784314 0.69411767
0.654902 0.6784314 0.69411767
0.654902 0.6784314 0.69411767
0.654902 0.6784314 0.69411767
0.654902 0.6784314 0.69411767
0.654902 0.6784314 0.69411767
0.654902 0.6784314 0.69411767
0.654902 0.6784314 0.69411767
0.654902 0.6784314 0.69411767
0.654902 0.6784314 0.69411767
0.654902 0.6784314 0.69411767
0.654902 0.6784314 0.69411767
0.654902 0.6784314 0.69411767
0.654902 0.6784314 0.69411767
0.654902 0.6784314 0.69411767
0.654902 0.6784314 0.69411767
0.654902 0.6784314 0.69411767
0.654902 0.6784314 0.69411767
0.654902 0.6784314 0.69411767
0.654902 0.6784314 0.69411767
0.654902 0.6784314 0.69411767
0.654902 0.6784314 0.69411767
0.654902 0.6784314 0.69411767
0.654902 0.6784314 0.69411767
0.654902 0.6784314 0.69411767
0.654902 0.6784314 0.69411767
0.654902 0.6784314 0.69411767
0.654902 0.6784314 0.69411767
0.654902 0.6784314 0.69411767
0.654902 0.6784314 0.69411767
0.654902 0.6784314 0.69411767
0.654902 0.6784314 0.69411767
0.654902 0.6784314 0.69411767
0.654902 0.6784314 0.69411767
0.654902 0.6784314 0.69411767
0.654902 0.6784314 0.69411767
0.654902 0.6784314 0.69411767
0.654902 0.6784314 0.69411767
0.654902 0.6784314 0.69411767
0.654902 0.6784314 0.69411767
0.654902 0.6784314 0.69411767
0.654902 0.6784314 0.69411767
0.654902 0.6784314 0.69411767
0.654902 0.6784314 0.69411767
0.654902 0.6784314 0.69411767
0.654902 0.6784314 0.69411767
0.654902 0.6784314 0.69411767
0.70980394 0.20392157 0.62352943
0.70980394 0.20392157 0.62352943
0.70980394 0.20392157 0.62352943
0.70980394 0.20392157 0.62352943
0.70980394 0.20392157 0.62352943
0.70980394 0.20392157 0.62352943
0.70980394 0.20392157 0.62352943
0.70980394 0.20392157 0.62352943
0.7647059 0.1254902 0.5568628
0.7647059 0.1254902 0.5568628
0.7647059 0.1254902 0.5568628
0.7647059 0.1254902 0.5568628
0.7647059 0.1254902 0.5568628
0.7647059 0.1254902 0.5568628
0.7647059 0.1254902 0.5568628
0.7647059 0.1254902 0.5568628
0.80784315 0.0 0.48235294
0.80784315 0.0 0.48235294
0.80784315 0.0 0.48235294
0.80784315 0.0 0.48235294
0.80784315 0.0 0.48235294
0.80784315 0.0 0.48235294
0.80784315 0.0 0.48235294
0.80784315 0.0 0.48235294
0.8156863 0.0 0.0
0.8156863 0.0 0.0
0.8156863 0.0 0.0
0.8156863 0.0 0.0
0.8156863 0.0 0.0
0.8156863 0.0 0.0
0.8156863 0.0 0.0
0.8156863 0.0 0.0
0.8156863 0.0 0.0
0.8156863 0.0 0.0
0.8392157 0.0 0.40392157
0.8392157 0.0 0.40392157
0.8392157 0.0 0.40392157
0.8392157 0.0 0.40392157
0.8392157 0.0 0.40392157
0.8392157 0.0 0.40392157
0.8392157 0.0 0.40392157
0.8392157 0.0 0.40392157
0.84313726 0.0 0.13725491
0.84313726 0.0 0.13725491
0.84313726 0.0 0.13725491
0.84313726 0.0 0.13725491
0.84313726 0.0 0.13725491
0.84313726 0.0 0.13725491
0.84313726 0.0 0.13725491
0.84313726 0.0 0.13725491
0.85490197 0.0 0.23137255
0.85490197 0.0 0.23137255
0.85490197 0.0 0.23137255
0.85490197 0.0 0.23137255
0.85490197 0.0 0.23137255
0.85490197 0.0 0.23137255
0.85490197 0.0 0.23137255
0.85490197 0.0 0.23137255
0.85490197 0.0 0.32156864
0.85490197 0.0 0.32156864
0.85490197 0.0 0.32156864
0.85490197 0.0 0.32156864
0.85490197 0.0 0.32156864
0.85490197 0.0 0.32156864
0.85490197 0.0 0.32156864
0.85490197 0.0 0.32156864
